# vtk DataFile Version 5.1
vtk output
ASCII
DATASET UNSTRUCTURED_GRID
POINTS 102 float
0.366268 0.096012 1.73472e-18 0.366268 -6.22221e-17 0.096012 0.28702 0.0500009 0 
0.28702 0.0542035 0 0.28702 0.0540258 0 0.28702 0.0531559 0 
0.28702 0.0518629 0 0.364313 0.0950032 0 0.362358 0.0939943 0 
0.360403 0.0929855 0 0.358448 0.0919767 0 0.356493 0.0909678 0 
0.354538 0.089959 0 0.352583 0.0889502 0 0.350628 0.0879413 0 
0.348673 0.0869325 0 0.346718 0.0859237 0 0.344763 0.0849148 0 
0.342808 0.083906 0 0.340853 0.0828972 0 0.338898 0.0818883 0 
0.336943 0.0808795 0 0.334988 0.0798707 0 0.333033 0.0788618 0 
0.331078 0.077853 0 0.329123 0.0768442 0 0.327168 0.0758353 0 
0.325213 0.0748265 0 0.323258 0.0738177 0 0.321303 0.0728088 0 
0.319348 0.0718 0 0.317393 0.0707912 0 0.315438 0.0697823 0 
0.313483 0.0687735 0 0.311528 0.0677647 0 0.309573 0.0667559 0 
0.307618 0.065747 0 0.305663 0.0647382 0 0.303708 0.0637294 0 
0.301753 0.0627205 0 0.299798 0.0617117 0 0.297843 0.0607028 0 
0.295888 0.059694 0 0.290145 0.0567305 0 0.288599 0.0559328 0 
0.291979 0.0576769 0 0.293933 0.0586852 0 0.287649 0.0553139 0 
0.287116 0.0546415 0 0.287064 0.0544986 0 0.287031 0.0543517 0 
0.287288 0.0549333 0 0.28702 -3.33073e-17 0.0500009 0.28702 -3.59884e-17 0.0540258 
0.28702 -3.61068e-17 0.0542035 0.28702 -3.45476e-17 0.0518629 0.28702 -3.5409e-17 0.0531559 
0.364313 -6.32848e-17 0.0950032 0.288599 -3.72588e-17 0.0559328 0.290145 -3.77901e-17 0.0567305 
0.291979 -3.84206e-17 0.0576769 0.293933 -3.90922e-17 0.0586852 0.295888 -3.97642e-17 0.059694 
0.297843 -4.04362e-17 0.0607028 0.299798 -4.11082e-17 0.0617117 0.301753 -4.17803e-17 0.0627205 
0.303708 -4.24523e-17 0.0637294 0.305663 -4.31243e-17 0.0647382 0.307618 -4.37963e-17 0.065747 
0.309573 -4.44683e-17 0.0667559 0.311528 -4.51404e-17 0.0677647 0.313483 -4.58124e-17 0.0687735 
0.315438 -4.64844e-17 0.0697823 0.317393 -4.71564e-17 0.0707912 0.319348 -4.78284e-17 0.0718 
0.321303 -4.85004e-17 0.0728088 0.323258 -4.91724e-17 0.0738177 0.325213 -4.98445e-17 0.0748265 
0.327168 -5.05165e-17 0.0758353 0.329123 -5.11885e-17 0.0768442 0.331078 -5.18605e-17 0.077853 
0.333033 -5.25325e-17 0.0788618 0.334988 -5.32046e-17 0.0798707 0.336943 -5.38766e-17 0.0808795 
0.338898 -5.45486e-17 0.0818883 0.340853 -5.52206e-17 0.0828972 0.342808 -5.58926e-17 0.083906 
0.344763 -5.65646e-17 0.0849148 0.346718 -5.72367e-17 0.0859237 0.348673 -5.79087e-17 0.0869325 
0.350628 -5.85807e-17 0.0879413 0.352583 -5.92527e-17 0.0889502 0.354538 -5.99247e-17 0.089959 
0.356493 -6.05968e-17 0.0909678 0.358448 -6.12688e-17 0.0919767 0.360403 -6.19408e-17 0.0929855 
0.362358 -6.26128e-17 0.0939943 0.287031 -3.61726e-17 0.0543517 0.287064 -3.62378e-17 0.0544986 
0.287116 -3.63013e-17 0.0546415 0.287288 -3.64309e-17 0.0549333 0.287649 -3.65999e-17 0.0553139 

METADATA
INFORMATION 2
NAME L2_NORM_RANGE LOCATION vtkDataArray
DATA 2 0.291343 0.378643 
NAME L2_NORM_FINITE_RANGE LOCATION vtkDataArray
DATA 2 0.291343 0.378643 

CELLS 101 200
OFFSETS vtktypeint64
0 2 4 6 8 10 12 14 16 
18 20 22 24 26 28 30 32 34 
36 38 40 42 44 46 48 50 52 
54 56 58 60 62 64 66 68 70 
72 74 76 78 80 82 84 86 88 
90 92 94 96 98 100 102 104 106 
108 110 112 114 116 118 120 122 124 
126 128 130 132 134 136 138 140 142 
144 146 148 150 152 154 156 158 160 
162 164 166 168 170 172 174 176 178 
180 182 184 186 188 190 192 194 196 
198 200 
CONNECTIVITY vtktypeint64
3 4 5 6 6 2 4 5 0 
7 7 8 9 10 11 12 13 14 
15 16 17 18 19 20 21 22 23 
24 25 26 27 28 29 30 31 32 
33 34 35 36 37 38 39 40 41 
42 43 44 8 9 10 11 12 13 
14 15 16 17 18 19 20 21 22 
23 24 25 26 27 28 29 30 31 
32 33 34 35 36 37 38 39 40 
41 45 43 42 46 46 45 44 47 
48 49 50 3 49 50 47 51 51 
48 53 54 52 55 55 56 56 53 
57 1 58 59 60 61 61 62 62 
63 64 65 66 67 68 69 70 71 
72 73 74 75 76 77 78 79 80 
81 82 83 84 85 86 87 88 89 
90 91 92 93 94 95 96 57 59 
60 63 64 65 66 67 68 69 70 
71 72 73 74 75 76 77 78 79 
80 81 82 83 84 85 86 87 88 
89 90 91 92 93 94 95 96 54 
97 98 99 100 101 101 58 99 100 
97 98 
CELL_TYPES 100
3
3
3
3
3
3
3
3
3
3
3
3
3
3
3
3
3
3
3
3
3
3
3
3
3
3
3
3
3
3
3
3
3
3
3
3
3
3
3
3
3
3
3
3
3
3
3
3
3
3
3
3
3
3
3
3
3
3
3
3
3
3
3
3
3
3
3
3
3
3
3
3
3
3
3
3
3
3
3
3
3
3
3
3
3
3
3
3
3
3
3
3
3
3
3
3
3
3
3
3

CELL_DATA 100
SCALARS STLSolidLabeling float
LOOKUP_TABLE default
0 0 0 0 0 0 0 0 0 
0 0 0 0 0 0 0 0 0 
0 0 0 0 0 0 0 0 0 
0 0 0 0 0 0 0 0 0 
0 0 0 0 0 0 0 0 0 
0 0 0 0 0 0 0 0 0 
0 0 0 0 0 0 0 0 0 
0 0 0 0 0 0 0 0 0 
0 0 0 0 0 0 0 0 0 
0 0 0 0 0 0 0 0 0 
0 0 0 0 0 0 0 0 0 
0 
FIELD FieldData 1
vtkOriginalCellIds 1 100 vtkIdType
292 293 294 295 322 323 324 325 326 
327 328 329 330 331 332 333 334 335 
336 337 338 339 340 341 342 343 344 
345 346 347 348 349 350 351 352 353 
354 355 356 357 358 359 360 361 373 
374 375 376 377 378 455 456 457 458 
459 460 461 462 463 464 465 466 467 
468 469 470 471 472 473 474 475 476 
477 478 479 480 481 482 483 484 485 
486 487 488 489 490 491 492 493 494 
495 496 497 498 570 571 572 573 574 
575 
POINT_DATA 102
FIELD FieldData 1
vtkOriginalPointIds 1 102 vtkIdType
30 121 200 289 290 291 292 319 320 
321 322 323 324 325 326 327 328 329 
330 331 332 333 334 335 336 337 338 
339 340 341 342 343 344 345 346 347 
348 349 350 351 352 353 354 355 356 
357 358 369 370 371 372 373 401 448 
449 450 451 452 453 454 455 456 457 
458 459 460 461 462 463 464 465 466 
467 468 469 470 471 472 473 474 475 
476 477 478 479 480 481 482 483 484 
485 486 487 488 489 490 491 563 564 
565 566 567 
