# vtk DataFile Version 5.1
vtk output
ASCII
DATASET UNSTRUCTURED_GRID
POINTS 470 float
0.366268 0.055118 0.044958 0.366268 0.055118 0.0376537 0.366268 0.055118 0.0323551 
0.366268 0.055118 0.0289112 0.366268 0.055118 0.0267385 0.366268 0.055118 0.0255192 
0.366268 0.0553158 0.0242635 0.366268 0.0558898 0.0231364 0.366268 0.0566071 0.0223875 
0.366268 0.0571987 0.0220005 0.366268 0.0580765 0.0215371 0.366268 0.0599596 0.0205429 
0.366268 0.0619992 0.0194661 0.366268 0.064013 0.0184029 0.366268 0.0660464 0.0173294 
0.366268 0.0680635 0.0162644 0.366268 0.0700918 0.0151936 0.366268 0.0721123 0.0141269 
0.366268 0.0741332 0.0130599 0.366268 0.0761568 0.0119916 0.366268 0.0781722 0.0109275 
0.366268 0.0801962 0.00985894 0.366268 0.0822391 0.00878042 0.366268 0.0842888 0.0076983 
0.366268 0.0863248 0.00662339 0.366268 0.0883568 0.00555059 0.366268 0.0903834 0.00448065 
0.366268 0.0924108 0.00341027 0.366268 0.0944412 0.00233834 0.366268 0.0964629 0.00127098 
0.366268 0.096012 1.73472e-18 0.366268 0.0940724 0.00102401 0.366268 0.0921328 0.00204802 
0.366268 0.0901932 0.00307204 0.366268 0.0882536 0.00409605 0.366268 0.086314 0.00512006 
0.366268 0.0843744 0.00614407 0.366268 0.0824348 0.00716808 0.366268 0.0804952 0.00819209 
0.366268 0.0785556 0.00921611 0.366268 0.076616 0.0102401 0.366268 0.0746764 0.0112641 
0.366268 0.0727368 0.0122881 0.366268 0.0707972 0.0133121 0.366268 0.0688576 0.0143362 
0.366268 0.066918 0.0153602 0.366268 0.0649784 0.0163842 0.366268 0.0630388 0.0174082 
0.366268 0.0610992 0.0184322 0.366268 0.0591596 0.0194562 0.366268 0.0573236 0.0204256 
0.366268 0.0559328 0.0211598 0.366268 0.0549313 0.0215173 0.366268 0.0542035 0.02159 
0.366268 0.0535163 0.02159 0.366268 0.050038 0.0250464 0.366268 0.050038 0.0289985 
0.366268 0.050038 0.0344515 0.366268 0.050038 0.0426573 0.366268 0.050038 0.050038 
0.366268 0.0988702 -1.73472e-18 0.366268 0.0523241 0.02159 0.366268 0.050038 0.02159 
0.366268 0.0426573 0.050038 0.366268 0.044958 0.055118 0.366268 0.0344515 0.050038 
0.366268 0.02159 0.0523241 0.366268 0.02159 0.0535163 0.366268 0.02159 0.0542035 
0.366268 0.0215173 0.0549313 0.366268 0.0211598 0.0559328 0.366268 0.0204256 0.0573236 
0.366268 0.0194562 0.0591596 0.366268 0.0184322 0.0610992 0.366268 0.0174082 0.0630388 
0.366268 0.0163842 0.0649784 0.366268 0.0153602 0.066918 0.366268 0.0143362 0.0688576 
0.366268 0.0133121 0.0707972 0.366268 0.0122881 0.0727368 0.366268 0.0112641 0.0746764 
0.366268 0.0102401 0.076616 0.366268 0.00921611 0.0785556 0.366268 0.00819209 0.0804952 
0.366268 0.00716808 0.0824348 0.366268 0.00614407 0.0843744 0.366268 0.00512006 0.086314 
0.366268 0.00409605 0.0882536 0.366268 0.00307204 0.0901932 0.366268 0.00204802 0.0921328 
0.366268 0.00324304 0.0927275 0.366268 0.00432405 0.09068 0.366268 0.00540506 0.0886324 
0.366268 0.00648607 0.0865849 0.366268 0.00756 0.0845507 0.366268 0.00864088 0.0825034 
0.366268 0.00971829 0.0804627 0.366268 0.0107993 0.0784151 0.366268 0.0118803 0.0763675 
0.366268 0.0129613 0.07432 0.366268 0.0140423 0.0722724 0.366268 0.0151233 0.0702249 
0.366268 0.0162044 0.0681773 0.366268 0.0172854 0.0661297 0.366268 0.0183664 0.0640822 
0.366268 0.0194474 0.0620346 0.366268 0.0205284 0.059987 0.366268 0.0215376 0.0580756 
0.366268 0.0220005 0.0571987 0.366268 0.0223875 0.0566071 0.366268 0.0231364 0.0558898 
0.366268 0.0242635 0.0553158 0.366268 0.0255192 0.055118 0.366268 0.0267385 0.055118 
0.366268 0.0289112 0.055118 0.366268 0.0323551 0.055118 0.366268 0.0376537 0.055118 
0.366268 0.0289985 0.050038 0.366268 0.0250464 0.050038 0.366268 0.02159 0.050038 
0.366268 0.00102401 0.0940724 0.366268 -6.22221e-17 0.096012 0.366268 -6.75955e-17 0.0988702 
0.366268 0.00108101 0.0968227 0.366268 0.00216202 0.0947751 0.220614 0.055118 0.044958 
0.211157 0.055118 0.044958 0.211157 0.055118 0 0.220424 0.055118 0 
0.229691 0.055118 0 0.238957 0.055118 0 0.248224 0.055118 0 
0.257491 0.055118 0 0.266298 0.055118 0 0.271161 0.055118 0 
0.272598 0.055118 0 0.358722 0.055118 0.044958 0.350547 0.055118 0.044958 
0.342365 0.055118 0.044958 0.334176 0.055118 0.044958 0.325981 0.055118 0.044958 
0.31778 0.055118 0.044958 0.309573 0.055118 0.044958 0.30136 0.055118 0.044958 
0.293141 0.055118 0.044958 0.286453 0.055118 0.044958 0.282867 0.055118 0.044958 
0.276419 0.055118 0.044958 0.267903 0.055118 0.044958 0.258446 0.055118 0.044958 
0.248988 0.055118 0.044958 0.23953 0.055118 0.044958 0.230072 0.055118 0.044958 
0.285166 0.05 0.05 0.285166 0.05 0.0498823 0.285166 0.0498809 0.05 
0.285166 0.05 0.049556 0.285166 0.05 0.0488067 0.285166 0.05 0.0477805 
0.285166 0.05 0.0470949 0.285166 0.05 0.0466779 0.285166 0.05 0.0464346 
0.285166 0.05 0.0463026 0.285166 0.05 0.0462034 0.285166 0.05 0.0459665 
0.285166 0.05 0.0453617 0.285166 0.05 0.0444459 0.285166 0.05 0.0428241 
0.285166 0.05 0.0399464 0.285166 0.05 0.0342428 0.285166 0.05 0.0253508 
0.285166 0.05 0.0165509 0.285166 0.05 0.009914 0.285166 0.05 0.00582491 
0.285166 0.05 0.00202131 0.285166 0.05 0 0.285166 0.0478708 0 
0.285166 0.0381197 0 0.285166 0.0295008 0 0.285166 0.0196672 0 
0.285166 0.00983361 0 0.285166 3.31761e-18 0 0.285166 -6.5505e-18 0.00983361 
0.285166 -1.3101e-17 0.0196672 0.285166 -1.96515e-17 0.0295008 0.285166 -2.53928e-17 0.0381197 
0.285166 -2.9527e-17 0.044326 0.285166 -3.18884e-17 0.0478708 0.285166 -3.33067e-17 0.05 
0.285166 0.00204359 0.05 0.285166 0.00608971 0.05 0.285166 0.0138972 0.05 
0.285166 0.0228645 0.05 0.285166 0.0318317 0.05 0.285166 0.0407966 0.05 
0.285166 0.0451836 0.05 0.285166 0.047526 0.05 0.285166 0.0487946 0.05 
0.285166 0.0495535 0.05 0.285166 0.044326 0 0.28702 0.0500009 0 
0.285268 0.05 0.05 0.285549 0.0500002 0.0500002 0.286036 0.0500004 0.0500004 
0.2869 0.0500008 0.0500008 0.288484 0.0500016 0.0500016 0.291852 0.0500031 0.0500031 
0.298717 0.0500063 0.0500063 0.308515 0.0500109 0.0500109 0.318312 0.0500155 0.0500155 
0.32811 0.0500201 0.0500201 0.337907 0.0500247 0.0500247 0.347704 0.0500293 0.0500293 
0.357501 0.0500339 0.0500339 0.362755 0.0500363 0.0206329 0.358911 0.0500345 0.0195856 
0.355066 0.0500327 0.0185383 0.351222 0.050031 0.0174909 0.347378 0.0500292 0.0164436 
0.343533 0.0500274 0.0153963 0.339689 0.0500255 0.014349 0.335845 0.0500237 0.0133016 
0.332 0.0500219 0.0122543 0.328156 0.0500201 0.011207 0.324312 0.0500183 0.0101597 
0.320398 0.0500165 0.00909333 0.316554 0.0500147 0.00804601 0.312709 0.0500129 0.00699868 
0.308865 0.0500111 0.00595135 0.305021 0.0500093 0.00490402 0.301176 0.0500075 0.0038567 
0.297332 0.0500057 0.00280937 0.293488 0.0500039 0.00176204 0.289639 0.0500021 0.000713432 
0.185359 0.050038 0.050038 0.185166 0.05 0.05 0.185166 0.05 0 
0.19383 0.051706 0 0.202493 0.053412 0 0.202176 0.0533496 0.0467264 
0.194334 0.0518053 0.0482707 0.190022 0.0509563 0.0491197 0.187344 0.0504288 0.0496472 
0.186006 0.0501654 0.0499106 0.185567 0.0500789 0.0499971 0.184944 0.0499402 0.0499402 
0.184595 0.0498458 0.0498458 0.183887 0.0496546 0.0496546 0.179005 0.0483364 0.0483364 
0.17259 0.0466041 0.0466041 0.163506 0.0441513 0.0441513 0.154423 0.0416984 0.0416984 
0.145339 0.0392456 0.0392456 0.136255 0.0367927 0.0367927 0.127172 0.0343399 0.0343399 
0.118088 0.031887 0.031887 0.109004 0.0294342 0.0294342 0.0999205 0.0269813 0.0269813 
0.0908368 0.0245285 0.0245285 0.0817531 0.0220756 0.0220756 0.0726695 0.0196228 0.0196228 
0.0635858 0.0171699 0.0171699 0.0545021 0.0147171 0.0147171 0.0454184 0.0122642 0.0122642 
0.0363347 0.00981139 0.00981139 0.0370332 0.01 0 0.0462915 0.0125 0 
0.0555498 0.015 0 0.0648081 0.0175 0 0.0740664 0.02 0 
0.0833247 0.0225 0 0.092583 0.025 0 0.101841 0.0275 0 
0.1111 0.03 0 0.120358 0.0325 0 0.129616 0.035 0 
0.138875 0.0375 0 0.148133 0.04 0 0.157391 0.0425 0 
0.166649 0.045 0 0.175908 0.0475 0 0.027251 0.00735854 0.00735854 
0.0277749 0.0075 0 0.0181674 0.0049057 0.0049057 0.182595 0.0493057 0.0493057 
0.00908368 0.00245285 0.00245285 0.0185166 0.005 0 0.0092583 0.0025 0 
8.06646e-17 1.21431e-17 1.20671e-17 0.292068 0.0605813 0 0.295278 0.0622377 0 
0.298702 0.0640043 0 0.301965 0.065688 0 0.305174 0.0673444 0 
0.308384 0.0690008 0 0.311594 0.0706572 0 0.314804 0.0723136 0 
0.318014 0.07397 0 0.321321 0.0756764 0 0.324531 0.0773328 0 
0.327741 0.0789892 0 0.331113 0.0807291 0 0.334323 0.0823855 0 
0.33772 0.0841386 0 0.34093 0.085795 0 0.344287 0.0875276 0 
0.347578 0.0892256 0 0.350962 0.0909719 0 0.354375 0.0927333 0 
0.357451 0.0943206 0 0.359998 0.0956347 0 0.36327 0.0973234 0 
0.285513 0.0571987 0 0.286977 0.0579543 0 0.289012 0.0590043 0 
0.277663 0.0553583 0 0.278911 0.0554985 0 0.280041 0.0556587 0 
0.281166 0.0558549 0 0.282282 0.0560931 0 0.283385 0.0563832 0 
0.284468 0.0567416 0 0.276019 0.0552257 0 0.274879 0.0551655 0 
0.273739 0.0551298 0 0.272598 -3.6716e-17 0.055118 0.270087 -3.6716e-17 0.055118 
0.264085 -3.6716e-17 0.055118 0.255279 -3.6716e-17 0.055118 0.246454 -3.6716e-17 0.055118 
0.23763 -3.6716e-17 0.055118 0.228805 -3.6716e-17 0.055118 0.219981 -3.6716e-17 0.055118 
0.211157 -3.6716e-17 0.055118 0.211157 0.044958 0.055118 0.220644 0.044958 0.055118 
0.230132 0.044958 0.055118 0.239619 0.044958 0.055118 0.249107 0.044958 0.055118 
0.258595 0.044958 0.055118 0.268082 0.044958 0.055118 0.276737 0.044958 0.055118 
0.292734 0.044958 0.055118 0.300974 0.044958 0.055118 0.309208 0.044958 0.055118 
0.317439 0.044958 0.055118 0.325664 0.044958 0.055118 0.333883 0.044958 0.055118 
0.342093 0.044958 0.055118 0.350296 0.044958 0.055118 0.358497 0.044958 0.055118 
0.284484 0.044958 0.055118 0.28702 -3.33073e-17 0.0500009 0.289662 0.000719872 0.0500021 
0.293583 0.00178788 0.0500039 0.297868 0.00295552 0.050006 0.302164 0.00412568 0.050008 
0.306459 0.00529583 0.05001 0.310754 0.00646598 0.050012 0.315049 0.00763613 0.050014 
0.319344 0.00880628 0.050016 0.323639 0.00997644 0.050018 0.327935 0.0111466 0.05002 
0.33223 0.0123167 0.0500221 0.336502 0.0134806 0.0500241 0.340783 0.0146469 0.0500261 
0.345078 0.015817 0.0500281 0.349373 0.0169872 0.0500301 0.353668 0.0181573 0.0500321 
0.357963 0.0193275 0.0500341 0.362409 0.0205386 0.0500362 0.202493 -3.55795e-17 0.053412 
0.19383 -3.44431e-17 0.051706 0.185166 -3.33067e-17 0.05 0.185578 0.0499948 0.0500812 
0.187532 0.0496102 0.0504658 0.190332 0.0490588 0.0510172 0.194709 0.0481969 0.0518791 
0.202446 0.0466732 0.0534028 0.186122 0.0498878 0.0501882 0.175908 -3.16414e-17 0.0475 
0.166649 -2.9976e-17 0.045 0.157391 -2.83107e-17 0.0425 0.148133 -2.66454e-17 0.04 
0.138875 -2.498e-17 0.0375 0.129616 -2.33147e-17 0.035 0.120358 -2.16493e-17 0.0325 
0.1111 -1.9984e-17 0.03 0.101841 -1.83187e-17 0.0275 0.092583 -1.66533e-17 0.025 
0.0833247 -1.4988e-17 0.0225 0.0740664 -1.33227e-17 0.02 0.0648081 -1.16573e-17 0.0175 
0.0555498 -9.99201e-18 0.015 0.0462915 -8.32667e-18 0.0125 0.0370332 -6.66134e-18 0.01 
0.0277749 -4.996e-18 0.0075 0.0185166 -3.33067e-18 0.005 0.0092583 -1.66534e-18 0.0025 
0.364133 -6.51269e-17 0.0977685 0.360975 -6.40415e-17 0.0961391 0.358391 -6.31533e-17 0.0948057 
0.355358 -6.21107e-17 0.0932406 0.352133 -6.1002e-17 0.0915761 0.348823 -5.98642e-17 0.0898681 
0.345488 -5.87177e-17 0.088147 0.342165 -5.75756e-17 0.0864325 0.339019 -5.64941e-17 0.084809 
0.335687 -5.53488e-17 0.0830897 0.332538 -5.42665e-17 0.0814648 0.329392 -5.3185e-17 0.0798413 
0.326099 -5.2053e-17 0.0781419 0.322953 -5.09715e-17 0.0765184 0.319648 -4.98356e-17 0.0748132 
0.316207 -4.86528e-17 0.0730375 0.313061 -4.75713e-17 0.071414 0.309915 -4.64898e-17 0.0697904 
0.306768 -4.54083e-17 0.0681669 0.303622 -4.43268e-17 0.0665434 0.300476 -4.32453e-17 0.0649198 
0.297065 -4.20728e-17 0.0631597 0.287384 -3.87451e-17 0.0581641 0.285513 -3.8102e-17 0.0571987 
0.293919 -4.09913e-17 0.0615362 0.290695 -3.98833e-17 0.0598728 0.283957 -3.8203e-17 0.0565615 
0.282285 -3.79954e-17 0.0560939 0.280476 -3.78337e-17 0.05573 0.27865 -3.77165e-17 0.055466 
0.27639 -3.76209e-17 0.0552507 0.274452 -3.75759e-17 0.0551493 0.297341 0.00467682 0.0556799 
0.295381 0.00415144 0.0556748 0.301177 0.00572634 0.0556774 0.299256 0.00520077 0.0556787 
0.304967 0.00675628 0.0556789 0.303089 0.00624586 0.0556782 0.308709 0.0077713 0.0556815 
0.306835 0.00726399 0.0556796 0.312476 0.00879737 0.0556816 0.310589 0.00828635 0.0556798 
0.31627 0.00983445 0.0556795 0.314373 0.00931429 0.0556816 0.320109 0.0108927 0.0556722 
0.318177 0.0103537 0.0556797 0.323964 0.011933 0.055678 0.322039 0.0114128 0.0556755 
0.327787 0.012971 0.0556802 0.325882 0.0124529 0.0556797 0.331646 0.0140284 0.0556767 
0.329713 0.0135019 0.0556766 0.335419 0.0150515 0.0556795 0.333544 0.0145417 0.0556789 
0.339192 0.0160769 0.0556809 0.337303 0.0155619 0.0556811 0.343 0.0171172 0.0556793 
0.341095 0.0165879 0.0556853 0.346882 0.0181821 0.055675 0.344918 0.0176503 0.0556731 
0.350833 0.0192589 0.0556747 0.348859 0.0187129 0.0556795 0.352835 0.0197985 0.0556781 
0.356731 0.0208547 0.0556813 0.354803 0.0203316 0.05568 0.360614 0.0219136 0.0556806 
0.358669 0.0213782 0.0556839 0.364494 0.0233176 0.0554975 0.362551 0.0224933 0.0556504 
0.293383 0.00360825 0.0556742 0.291243 0.00304763 0.0556612 
METADATA
INFORMATION 2
NAME L2_NORM_RANGE LOCATION vtkDataArray
DATA 2 8.24612e-17 0.379378 
NAME L2_NORM_FINITE_RANGE LOCATION vtkDataArray
DATA 2 8.24612e-17 0.379378 

CELLS 477 952
OFFSETS vtktypeint64
0 2 4 6 8 10 12 14 16 
18 20 22 24 26 28 30 32 34 
36 38 40 42 44 46 48 50 52 
54 56 58 60 62 64 66 68 70 
72 74 76 78 80 82 84 86 88 
90 92 94 96 98 100 102 104 106 
108 110 112 114 116 118 120 122 124 
126 128 130 132 134 136 138 140 142 
144 146 148 150 152 154 156 158 160 
162 164 166 168 170 172 174 176 178 
180 182 184 186 188 190 192 194 196 
198 200 202 204 206 208 210 212 214 
216 218 220 222 224 226 228 230 232 
234 236 238 240 242 244 246 248 250 
252 254 256 258 260 262 264 266 268 
270 272 274 276 278 280 282 284 286 
288 290 292 294 296 298 300 302 304 
306 308 310 312 314 316 318 320 322 
324 326 328 330 332 334 336 338 340 
342 344 346 348 350 352 354 356 358 
360 362 364 366 368 370 372 374 376 
378 380 382 384 386 388 390 392 394 
396 398 400 402 404 406 408 410 412 
414 416 418 420 422 424 426 428 430 
432 434 436 438 440 442 444 446 448 
450 452 454 456 458 460 462 464 466 
468 470 472 474 476 478 480 482 484 
486 488 490 492 494 496 498 500 502 
504 506 508 510 512 514 516 518 520 
522 524 526 528 530 532 534 536 538 
540 542 544 546 548 550 552 554 556 
558 560 562 564 566 568 570 572 574 
576 578 580 582 584 586 588 590 592 
594 596 598 600 602 604 606 608 610 
612 614 616 618 620 622 624 626 628 
630 632 634 636 638 640 642 644 646 
648 650 652 654 656 658 660 662 664 
666 668 670 672 674 676 678 680 682 
684 686 688 690 692 694 696 698 700 
702 704 706 708 710 712 714 716 718 
720 722 724 726 728 730 732 734 736 
738 740 742 744 746 748 750 752 754 
756 758 760 762 764 766 768 770 772 
774 776 778 780 782 784 786 788 790 
792 794 796 798 800 802 804 806 808 
810 812 814 816 818 820 822 824 826 
828 830 832 834 836 838 840 842 844 
846 848 850 852 854 856 858 860 862 
864 866 868 870 872 874 876 878 880 
882 884 886 888 890 892 894 896 898 
900 902 904 906 908 910 912 914 916 
918 920 922 924 926 928 930 932 934 
936 938 940 942 944 946 948 950 952 

CONNECTIVITY vtktypeint64
0 1 1 2 3 4 5 6 6 
7 7 8 9 10 10 11 11 12 
12 13 13 14 14 15 15 16 16 
17 17 18 18 19 19 20 20 21 
21 22 22 23 23 24 24 25 25 
26 26 27 27 28 28 29 30 31 
31 32 32 33 33 34 34 35 35 
36 36 37 37 38 38 39 39 40 
40 41 41 42 42 43 43 44 44 
45 45 46 46 47 47 48 48 49 
49 50 51 52 53 54 55 56 57 
58 58 59 59 0 50 51 2 3 
4 5 8 9 29 60 60 30 54 
61 52 53 61 62 56 57 62 55 
59 63 64 59 63 65 66 67 68 
69 69 70 70 71 72 73 73 74 
74 75 75 76 76 77 77 78 78 
79 79 80 80 81 81 82 82 83 
83 84 84 85 85 86 86 87 87 
88 88 89 90 91 91 92 92 93 
93 94 94 95 95 96 96 97 97 
98 98 99 99 100 100 101 101 102 
102 103 103 104 104 105 105 106 106 
107 107 108 109 110 110 111 111 112 
113 114 114 115 115 116 116 64 71 
72 65 117 117 118 119 66 67 68 
108 109 89 120 120 121 121 122 122 
123 123 124 124 90 112 113 118 119 
125 126 127 128 128 129 129 130 131 
132 132 133 133 134 134 135 0 136 
137 138 139 140 141 142 142 143 143 
144 144 145 145 146 146 147 147 148 
148 149 150 151 152 125 130 131 138 
139 136 137 140 141 149 150 151 152 
153 154 155 153 154 156 156 157 157 
158 158 159 159 160 161 162 163 164 
164 165 166 167 167 168 168 169 169 
170 170 171 171 172 172 173 173 174 
174 175 175 176 177 178 179 180 180 
181 181 182 182 183 183 184 185 186 
186 187 187 188 188 189 189 190 190 
191 191 192 192 193 194 195 195 196 
196 197 197 198 160 161 162 163 176 
199 199 177 178 179 184 185 193 194 
198 155 165 166 200 175 153 201 202 
203 203 204 205 206 206 207 207 208 
208 209 210 211 212 213 213 59 62 
214 215 216 216 217 217 218 218 219 
219 220 220 221 221 222 222 223 223 
224 224 225 225 226 226 227 227 228 
228 229 229 230 230 231 231 232 232 
233 233 200 201 202 204 205 209 210 
211 212 214 215 234 235 236 237 237 
238 238 127 126 239 240 241 241 242 
243 244 244 234 239 240 242 243 235 
245 246 247 248 249 249 250 251 252 
253 254 255 256 257 258 259 260 261 
262 262 263 263 264 265 266 266 267 
268 269 269 270 271 272 273 274 275 
276 277 278 279 280 280 236 264 281 
282 265 281 283 245 246 247 284 250 
251 252 253 254 255 256 257 258 259 
260 261 270 271 283 285 286 282 274 
275 267 268 272 273 276 277 278 279 
284 248 287 286 285 288 288 287 289 
290 290 291 291 292 292 293 294 295 
295 296 297 298 298 299 299 300 300 
301 301 302 302 303 303 304 304 305 
305 306 306 307 307 308 308 309 310 
311 311 60 312 313 314 289 293 294 
296 297 309 310 313 314 315 316 317 
318 319 320 321 312 322 315 323 322 
316 317 318 319 320 321 135 324 324 
323 325 326 326 327 327 328 328 329 
330 331 332 333 334 335 336 337 338 
339 340 341 342 343 343 344 344 345 
346 347 348 349 350 64 329 330 331 
332 339 340 335 336 337 338 341 351 
351 342 345 346 347 348 349 350 188 
352 352 353 353 354 354 355 355 356 
356 357 357 358 358 359 359 360 360 
361 361 362 362 363 363 364 364 365 
365 366 366 367 367 368 368 369 369 
370 370 119 333 371 371 372 372 373 
234 374 375 376 376 377 377 378 378 
334 374 379 379 375 373 380 380 381 
382 383 384 385 386 387 388 389 389 
390 391 392 393 394 394 395 395 396 
396 397 381 382 383 384 385 386 387 
388 390 391 392 393 398 288 397 398 
122 399 400 401 402 403 404 405 405 
406 407 408 409 410 411 412 413 414 
415 416 417 418 419 420 421 422 399 
400 401 402 403 404 406 407 408 409 
410 411 412 413 414 415 416 417 418 
419 420 423 423 424 424 421 422 425 
426 427 425 426 427 428 428 429 429 
430 431 432 433 434 435 436 437 438 
439 440 441 442 443 444 445 446 447 
448 449 450 451 452 453 454 455 456 
457 458 459 460 461 459 462 463 464 
465 466 467 468 469 432 468 467 464 
462 465 461 463 457 460 455 458 453 
456 451 454 449 452 447 450 445 448 
443 446 441 444 439 442 437 440 435 
438 433 436 431 434 430 325 
CELL_TYPES 476
3
3
3
3
3
3
3
3
3
3
3
3
3
3
3
3
3
3
3
3
3
3
3
3
3
3
3
3
3
3
3
3
3
3
3
3
3
3
3
3
3
3
3
3
3
3
3
3
3
3
3
3
3
3
3
3
3
3
3
3
3
3
3
3
3
3
3
3
3
3
3
3
3
3
3
3
3
3
3
3
3
3
3
3
3
3
3
3
3
3
3
3
3
3
3
3
3
3
3
3
3
3
3
3
3
3
3
3
3
3
3
3
3
3
3
3
3
3
3
3
3
3
3
3
3
3
3
3
3
3
3
3
3
3
3
3
3
3
3
3
3
3
3
3
3
3
3
3
3
3
3
3
3
3
3
3
3
3
3
3
3
3
3
3
3
3
3
3
3
3
3
3
3
3
3
3
3
3
3
3
3
3
3
3
3
3
3
3
3
3
3
3
3
3
3
3
3
3
3
3
3
3
3
3
3
3
3
3
3
3
3
3
3
3
3
3
3
3
3
3
3
3
3
3
3
3
3
3
3
3
3
3
3
3
3
3
3
3
3
3
3
3
3
3
3
3
3
3
3
3
3
3
3
3
3
3
3
3
3
3
3
3
3
3
3
3
3
3
3
3
3
3
3
3
3
3
3
3
3
3
3
3
3
3
3
3
3
3
3
3
3
3
3
3
3
3
3
3
3
3
3
3
3
3
3
3
3
3
3
3
3
3
3
3
3
3
3
3
3
3
3
3
3
3
3
3
3
3
3
3
3
3
3
3
3
3
3
3
3
3
3
3
3
3
3
3
3
3
3
3
3
3
3
3
3
3
3
3
3
3
3
3
3
3
3
3
3
3
3
3
3
3
3
3
3
3
3
3
3
3
3
3
3
3
3
3
3
3
3
3
3
3
3
3
3
3
3
3
3
3
3
3
3
3
3
3
3
3
3
3
3
3
3
3
3
3
3
3
3
3
3
3
3
3
3
3
3
3
3
3
3
3
3
3
3
3
3
3
3
3
3
3
3
3
3
3
3
3
3
3
3
3
3
3
3
3
3
3
3
3
3
3
3
3
3
3
3
3
3
3
3
3
3
3
3
3

CELL_DATA 476
SCALARS STLSolidLabeling float
LOOKUP_TABLE default
0 0 0 0 0 0 0 0 0 
0 0 0 0 0 0 0 0 0 
0 0 0 0 0 0 0 0 0 
0 0 0 0 0 0 0 0 0 
0 0 0 0 0 0 0 0 0 
0 0 0 0 0 0 0 0 0 
0 0 0 0 0 0 0 0 0 
0 0 0 0 0 0 0 0 0 
0 0 0 0 0 0 0 0 0 
0 0 0 0 0 0 0 0 0 
0 0 0 0 0 0 0 0 0 
0 0 0 0 0 0 0 0 0 
0 0 0 0 0 0 0 0 0 
0 0 0 0 0 0 0 0 0 
0 0 0 0 0 0 0 0 0 
0 0 0 0 0 0 0 0 0 
0 0 0 0 0 0 0 0 0 
0 0 0 0 0 0 0 0 0 
0 0 0 0 0 0 0 0 0 
0 0 0 0 0 0 0 0 0 
0 0 0 0 0 0 0 0 0 
0 0 0 0 0 0 0 0 0 
0 0 0 0 0 0 0 0 0 
0 0 0 0 0 0 0 0 0 
0 0 0 0 0 0 0 0 0 
0 0 0 0 0 0 0 0 0 
0 0 0 0 0 0 0 0 0 
0 0 0 0 0 0 0 0 0 
0 0 0 0 0 0 0 0 0 
0 0 0 0 0 0 0 0 0 
0 0 0 0 0 0 0 0 0 
0 0 0 0 0 0 0 0 0 
0 0 0 0 0 0 0 0 0 
0 0 0 0 0 0 0 0 0 
0 0 0 0 0 0 0 0 0 
0 0 0 0 0 0 0 0 0 
0 0 0 0 0 0 0 0 0 
0 0 0 0 0 0 0 0 0 
0 0 0 0 0 0 0 0 0 
0 0 0 0 0 0 0 0 0 
0 0 0 0 0 0 0 0 0 
0 0 0 0 0 0 0 0 0 
0 0 0 0 0 0 0 0 0 
0 0 0 0 0 0 0 0 0 
0 0 0 0 0 0 0 0 0 
0 0 0 0 0 0 0 0 0 
0 0 0 0 0 0 0 0 0 
0 0 0 0 0 0 0 0 0 
0 0 0 0 0 0 0 0 0 
0 0 0 0 0 0 0 0 0 
0 0 0 0 0 0 0 0 0 
0 0 0 0 0 0 0 0 0 
0 0 0 0 0 0 0 0 
FIELD FieldData 1
vtkOriginalCellIds 1 476 vtkIdType
0 1 2 3 4 5 6 7 8 
9 10 11 12 13 14 15 16 17 
18 19 20 21 22 23 24 25 26 
27 28 29 30 31 32 33 34 35 
36 37 38 39 40 41 42 43 44 
45 46 47 48 49 50 51 52 53 
54 55 56 57 58 59 60 61 62 
63 64 65 66 67 68 69 70 71 
72 73 74 75 76 77 78 79 80 
81 82 83 84 85 86 87 88 89 
90 91 92 93 94 95 96 97 98 
99 100 101 102 103 104 105 106 107 
108 109 110 111 112 113 114 115 116 
117 118 119 120 121 122 123 124 125 
126 127 128 129 130 131 132 133 134 
135 136 137 138 139 140 141 142 143 
144 145 146 147 148 149 150 151 152 
153 154 155 156 157 158 159 160 161 
162 163 164 165 166 167 168 169 170 
171 172 173 174 175 176 177 178 179 
180 181 182 183 184 185 186 187 188 
189 190 191 192 193 194 195 196 197 
198 199 200 201 202 203 204 205 206 
207 208 209 210 211 212 213 214 215 
216 217 218 219 220 221 222 223 224 
225 226 227 228 229 230 231 232 233 
234 235 236 237 238 239 240 241 242 
243 244 245 246 247 248 249 250 251 
252 253 254 255 256 257 258 259 260 
261 262 263 264 265 266 267 268 269 
270 271 272 273 274 275 276 277 278 
279 280 281 282 283 284 285 286 287 
288 289 290 291 296 297 298 299 300 
301 302 303 304 305 306 307 308 309 
310 311 312 313 314 315 316 317 318 
319 320 321 362 363 364 365 366 367 
368 369 370 371 372 379 380 381 382 
383 384 385 386 387 388 389 390 391 
392 393 394 395 396 397 398 399 400 
401 402 403 404 405 406 407 408 409 
410 411 412 413 414 415 416 417 418 
419 420 421 422 423 424 425 426 427 
428 429 430 431 432 433 434 435 436 
437 438 439 440 441 442 443 444 445 
446 447 448 449 450 451 452 453 454 
499 500 501 502 503 504 505 506 507 
508 509 510 511 512 513 514 515 516 
517 518 519 520 521 522 523 524 525 
526 527 528 529 530 531 532 533 534 
535 536 537 538 539 540 541 542 543 
544 545 546 547 548 549 550 551 552 
553 554 555 556 557 558 559 560 561 
562 563 564 565 566 567 568 569 
POINT_DATA 470
FIELD FieldData 1
vtkOriginalPointIds 1 470 vtkIdType
0 1 2 3 4 5 6 7 8 
9 10 11 12 13 14 15 16 17 
18 19 20 21 22 23 24 25 26 
27 28 29 30 31 32 33 34 35 
36 37 38 39 40 41 42 43 44 
45 46 47 48 49 50 51 52 53 
54 55 56 57 58 59 60 61 62 
63 64 65 66 67 68 69 70 71 
72 73 74 75 76 77 78 79 80 
81 82 83 84 85 86 87 88 89 
90 91 92 93 94 95 96 97 98 
99 100 101 102 103 104 105 106 107 
108 109 110 111 112 113 114 115 116 
117 118 119 120 121 122 123 124 125 
126 127 128 129 130 131 132 133 134 
135 136 137 138 139 140 141 142 143 
144 145 146 147 148 149 150 151 152 
153 154 155 156 157 158 159 160 161 
162 163 164 165 166 167 168 169 170 
171 172 173 174 175 176 177 178 179 
180 181 182 183 184 185 186 187 188 
189 190 191 192 193 194 195 196 197 
198 199 200 201 202 203 204 205 206 
207 208 209 210 211 212 213 214 215 
216 217 218 219 220 221 222 223 224 
225 226 227 228 229 230 231 232 233 
234 235 236 237 238 239 240 241 242 
243 244 245 246 247 248 249 250 251 
252 253 254 255 256 257 258 259 260 
261 262 263 264 265 266 267 268 269 
270 271 272 273 274 275 276 277 278 
279 280 281 282 283 284 285 286 287 
288 293 294 295 296 297 298 299 300 
301 302 303 304 305 306 307 308 309 
310 311 312 313 314 315 316 317 318 
359 360 361 362 363 364 365 366 367 
368 374 375 376 377 378 379 380 381 
382 383 384 385 386 387 388 389 390 
391 392 393 394 395 396 397 398 399 
400 401 402 403 404 405 406 407 408 
409 410 411 412 413 414 415 416 417 
418 419 420 421 422 423 424 425 426 
427 428 429 430 431 432 433 434 435 
436 437 438 439 440 441 442 443 444 
445 446 447 492 493 494 495 496 497 
498 499 500 501 502 503 504 505 506 
507 508 509 510 511 512 513 514 515 
516 517 518 519 520 521 522 523 524 
525 526 527 528 529 530 531 532 533 
534 535 536 537 538 539 540 541 542 
543 544 545 546 547 548 549 550 551 
552 553 554 555 556 557 558 559 560 
561 562 
