# vtk DataFile Version 5.1
vtk output
ASCII
DATASET POLYDATA
POINTS 248 float
0.211157 0.055118 0.044958 0.366268 0.055118 0.044958 0.366268 0.050038 0.050038 
0.366268 0.044958 0.055118 0.211157 0.044958 0.055118 0.185359 0.050038 0.050038 
0.288461 0 0.0558598 0.288599 -3.72588e-17 0.0559328 0.366268 0.0211598 0.0559328 
0.366268 0.0211974 0.0558598 0.288329 0 0.0557859 0.366268 0.0212333 0.0557859 
0.288203 0 0.0557113 0.366268 0.0212676 0.0557113 0.288084 0 0.0556361 
0.366268 0.0213002 0.0556361 0.28797 0 0.0555601 0.366268 0.0213312 0.0555601 
0.287863 0 0.0554836 0.366268 0.0213605 0.0554836 0.287761 0 0.0554064 
0.366268 0.021388 0.0554064 0.287667 0 0.0553288 0.366268 0.0214139 0.0553288 
0.287578 0 0.0552506 0.366268 0.021438 0.0552506 0.287496 0 0.0551719 
0.366268 0.0214603 0.0551719 0.287457 0 0.0551324 0.366268 0.0214809 0.0550927 
0.28742 0 0.0550927 0.287259 0 0.0548932 0.287288 0 0.0549333 
0.287319 0 0.0549733 0.366268 0.0214998 0.0550132 0.366268 0.0215169 0.0549333 
0.287351 0 0.0550132 0.287385 0 0.055053 0.287232 0 0.0548531 
0.366268 0.0215322 0.0548531 0.287207 0 0.0548128 0.366268 0.0215457 0.0547725 
0.287183 0 0.0547725 0.287087 0 0.0545701 0.287103 0 0.0546107 
0.28712 0 0.0546512 0.366268 0.0215574 0.0546917 0.366268 0.0215674 0.0546107 
0.287139 0 0.0546917 0.28716 0 0.0547322 0.287073 0 0.0545295 
0.366268 0.0215755 0.0545295 0.287061 0 0.0544888 0.366268 0.0215819 0.0544481 
0.28705 0 0.0544481 0.366268 0.0215891 0.0542851 0.366268 0.02159 0.0542035 
0.28702 -3.61068e-17 0.0542035 0.287021 0 0.0542443 0.287023 0 0.0542851 
0.287027 0 0.0543259 0.366268 0.0215864 0.0543667 0.287033 0 0.0543667 
0.287041 0 0.0544074 0.281182 -3.78906e-17 0.055858 0.280687 0 0.0557666 
0.366268 0.0231786 0.0558594 0.366268 0.0230462 0.0559576 0.281675 0 0.0559576 
0.366268 0.0229183 0.0560611 0.282137 -3.798e-17 0.0560594 0.366268 0.022795 0.0561698 
0.282597 0 0.0561698 0.366268 0.0226765 0.0562834 0.283024 -3.80785e-17 0.0562812 
0.366268 0.0225632 0.0564017 0.283448 0 0.0564017 0.366268 0.0224551 0.0565246 
0.283845 0 0.0565246 0.366268 0.0223525 0.0566517 0.284221 0 0.0566517 
0.366268 0.0222556 0.056783 0.284577 0 0.056783 0.366268 0.0221645 0.056918 
0.284911 0 0.056918 0.366268 0.0220794 0.0570567 0.285223 0 0.0570567 
0.366268 0.0220005 0.0571987 0.285513 -3.8102e-17 0.0571987 0.273209 -3.75635e-17 0.0551214 
0.272598 -3.6716e-17 0.055118 0.366268 0.0255192 0.055118 0.366268 0.0253522 0.0551214 
0.273821 -3.7568e-17 0.0551316 0.366268 0.0251855 0.0551316 0.274432 0 0.0551486 
0.366268 0.0250195 0.0551486 0.275034 -3.7586e-17 0.0551722 0.366268 0.0248543 0.0551724 
0.275635 -3.75995e-17 0.0552026 0.366268 0.0246903 0.0552029 0.276237 0 0.05524 
0.366268 0.0245278 0.05524 0.276819 -3.76353e-17 0.0552832 0.366268 0.0243671 0.0552838 
0.277401 -3.76576e-17 0.0553333 0.366268 0.0242084 0.055334 0.277983 0 0.0553907 
0.366268 0.0240521 0.0553907 0.278537 -3.77105e-17 0.0554525 0.366268 0.0238984 0.0554537 
0.27909 -3.77412e-17 0.0555216 0.366268 0.0237476 0.055523 0.279642 0 0.0555983 
0.366268 0.0235999 0.0555983 0.280166 -3.78109e-17 0.0556786 0.366268 0.0234557 0.0556796 
0.366268 0.0233152 0.0557666 0.366268 -6.75955e-17 0.0988702 0.366268 -6.22221e-17 0.096012 
0.366268 0.02159 0.050038 0.28702 -3.33073e-17 0.0500009 0.211157 -3.6716e-17 0.055118 
0.185166 -3.33067e-17 0.05 0.185166 0.05 0.05 0.272598 0.055118 0 
0.273209 0.0551214 0 0.366268 0.0551214 0.0253522 0.366268 0.055118 0.0255192 
0.273821 0.0551316 0 0.366268 0.0551316 0.0251855 0.274432 0.0551486 -1.97867e-17 
0.366268 0.0551486 0.0250195 0.275034 0.0551722 0 0.366268 0.0551724 0.0248543 
0.275635 0.0552026 0 0.366268 0.0552029 0.0246903 0.276237 0.05524 -1.87567e-17 
0.366268 0.05524 0.0245278 0.276819 0.0552832 0 0.366268 0.0552838 0.0243671 
0.277401 0.0553333 0 0.366268 0.055334 0.0242084 0.277983 0.0553907 -2.88398e-17 
0.366268 0.0553907 0.0240521 0.278537 0.0554525 0 0.366268 0.0554537 0.0238984 
0.27909 0.0555216 0 0.366268 0.055523 0.0237476 0.279642 0.0555983 -1.66967e-17 
0.366268 0.0555983 0.0235999 0.280166 0.0556786 0 0.366268 0.0556796 0.0234557 
0.280687 0.0557666 -1.9082e-17 0.366268 0.0557666 0.0233152 0.281182 0.055858 0 
0.366268 0.0558594 0.0231786 0.281675 0.0559576 -2.42861e-17 0.366268 0.0559576 0.0230462 
0.282137 0.0560594 0 0.366268 0.0560611 0.0229183 0.282597 0.0561698 -1.77809e-17 
0.366268 0.0561698 0.022795 0.283024 0.0562812 0 0.366268 0.0562834 0.0226765 
0.283448 0.0564017 -2.12504e-17 0.366268 0.0564017 0.0225632 0.283845 0.0565246 -3.20924e-17 
0.366268 0.0565246 0.0224551 0.284221 0.0566517 -1.56125e-17 0.366268 0.0566517 0.0223525 
0.284577 0.056783 -2.42861e-17 0.366268 0.056783 0.0222556 0.284911 0.056918 -2.0383e-17 
0.366268 0.056918 0.0221645 0.285223 0.0570567 -2.68882e-17 0.366268 0.0570567 0.0220794 
0.285513 0.0571987 0 0.366268 0.0571987 0.0220005 0.287033 0.0543667 9.1073e-18 
0.287027 0.0543259 1.51788e-17 0.287023 0.0542851 3.1225e-17 0.287021 0.0542443 2.73219e-17 
0.28702 0.0542035 0 0.366268 0.0542035 0.02159 0.366268 0.0542851 0.0215891 
0.287073 0.0545295 2.60209e-17 0.287061 0.0544888 9.1073e-18 0.28705 0.0544481 2.34188e-17 
0.366268 0.0543667 0.0215864 0.366268 0.0544481 0.0215819 0.287041 0.0544074 1.34441e-17 
0.287139 0.0546917 2.42861e-17 0.28712 0.0546512 9.97466e-18 0.287103 0.0546107 1.77809e-17 
0.366268 0.0545295 0.0215755 0.366268 0.0546107 0.0215674 0.287087 0.0545701 2.29851e-17 
0.287232 0.0548531 2.60209e-17 0.287207 0.0548128 9.97466e-18 0.287183 0.0547725 2.60209e-17 
0.366268 0.0546917 0.0215574 0.366268 0.0547725 0.0215457 0.28716 0.0547322 2.55872e-17 
0.287351 0.0550132 1.60462e-17 0.287319 0.0549733 2.38524e-17 0.287288 0.0549333 2.51535e-17 
0.366268 0.0548531 0.0215322 0.366268 0.0549333 0.0215169 0.287259 0.0548932 3.77302e-17 
0.287496 0.0551719 2.55872e-17 0.287457 0.0551324 3.1225e-17 0.28742 0.0550927 1.73472e-17 
0.366268 0.0550132 0.0214998 0.366268 0.0550927 0.0214809 0.287385 0.055053 6.07153e-18 
0.366268 0.0551719 0.0214603 0.366268 0.0552506 0.021438 0.287578 0.0552506 2.68882e-17 
0.287667 0.0553288 1.38778e-17 0.366268 0.0553288 0.0214139 0.366268 0.0554064 0.021388 
0.287761 0.0554064 1.43115e-17 0.287863 0.0554836 2.25514e-17 0.366268 0.0554836 0.0213605 
0.366268 0.0555601 0.0213312 0.28797 0.0555601 2.9924e-17 0.288084 0.0556361 1.34441e-17 
0.366268 0.0556361 0.0213002 0.366268 0.0557113 0.0212676 0.288203 0.0557113 2.64545e-17 
0.288329 0.0557859 2.86229e-17 0.366268 0.0558598 0.0211974 0.366268 0.0559328 0.0211598 
0.366268 0.0557859 0.0212333 0.288461 0.0558598 1.56125e-17 0.288599 0.0559328 0 
8.06646e-17 1.21431e-17 1.20671e-17 0.366268 0.050038 0.02159 0.28702 0.0500009 0 
0.285166 0.05 0.05 0.285166 -3.33067e-17 0.05 0.366268 0.096012 1.73472e-18 
0.366268 0.0988702 -1.73472e-18 0.211157 0.055118 0 0.185166 0.05 0 
0.285166 3.31761e-18 0 0.285166 0.05 0 
METADATA
INFORMATION 2
NAME L2_NORM_RANGE LOCATION vtkDataArray
DATA 2 8.24612e-17 0.379378 
NAME L2_NORM_FINITE_RANGE LOCATION vtkDataArray
DATA 2 8.24612e-17 0.379378 

LINES 258 514
OFFSETS vtktypeint64
0 2 4 6 8 10 12 14 16 
18 20 22 24 26 28 30 32 34 
36 38 40 42 44 46 48 50 52 
54 56 58 60 62 64 66 68 70 
72 74 76 78 80 82 84 86 88 
90 92 94 96 98 100 102 104 106 
108 110 112 114 116 118 120 122 124 
126 128 130 132 134 136 138 140 142 
144 146 148 150 152 154 156 158 160 
162 164 166 168 170 172 174 176 178 
180 182 184 186 188 190 192 194 196 
198 200 202 204 206 208 210 212 214 
216 218 220 222 224 226 228 230 232 
234 236 238 240 242 244 246 248 250 
252 254 256 258 260 262 264 266 268 
270 272 274 276 278 280 282 284 286 
288 290 292 294 296 298 300 302 304 
306 308 310 312 314 316 318 320 322 
324 326 328 330 332 334 336 338 340 
342 344 346 348 350 352 354 356 358 
360 362 364 366 368 370 372 374 376 
378 380 382 384 386 388 390 392 394 
396 398 400 402 404 406 408 410 412 
414 416 418 420 422 424 426 428 430 
432 434 436 438 440 442 444 446 448 
450 452 454 456 458 460 462 464 466 
468 470 472 474 476 478 480 482 484 
486 488 490 492 494 496 498 500 502 
504 506 508 510 512 514 
CONNECTIVITY vtktypeint64
0 1 1 2 3 4 2 3 4 
5 5 0 6 7 8 9 10 6 
9 11 12 10 11 13 14 12 13 
15 16 14 15 17 18 16 17 19 
20 18 19 21 22 20 21 23 24 
22 23 25 26 24 25 27 28 26 
27 29 30 28 31 32 32 33 34 
35 33 36 29 34 36 37 37 30 
38 31 35 39 40 38 39 41 42 
40 43 44 44 45 46 47 45 48 
41 46 48 49 49 42 50 43 47 
51 52 50 51 53 54 52 55 56 
57 58 58 59 59 60 61 55 60 
62 53 61 62 63 63 54 64 65 
66 67 68 64 67 69 70 68 69 
71 72 70 71 73 74 72 73 75 
76 74 75 77 78 76 77 79 80 
78 79 81 82 80 81 83 84 82 
83 85 86 84 85 87 88 86 89 
90 91 92 93 89 92 94 95 93 
94 96 97 95 96 98 99 97 98 
100 101 99 100 102 103 101 102 104 
105 103 104 106 107 105 106 108 109 
107 108 110 111 109 110 112 113 111 
112 114 115 113 114 116 65 115 116 
117 117 66 87 118 118 88 7 119 
119 8 56 120 120 121 121 57 122 
123 124 5 3 91 90 122 125 126 
127 128 126 129 130 127 129 131 132 
130 131 133 134 132 133 135 136 134 
135 137 138 136 137 139 140 138 139 
141 142 140 141 143 144 142 143 145 
146 144 145 147 148 146 147 149 150 
148 149 151 152 150 151 153 154 152 
153 155 156 154 155 157 158 156 157 
159 160 158 159 161 162 160 161 163 
164 162 163 165 166 164 165 167 168 
166 167 169 170 168 169 171 172 170 
171 173 174 172 173 175 176 174 175 
177 178 176 179 180 180 181 181 182 
182 183 184 185 186 187 187 188 185 
189 189 190 191 179 188 191 192 193 
193 194 190 195 195 196 197 186 194 
197 198 199 199 200 196 201 201 202 
203 192 200 203 204 205 205 206 202 
207 207 208 209 198 206 209 210 211 
211 212 208 213 213 214 215 204 212 
215 214 216 216 217 218 210 219 218 
217 220 220 221 222 219 223 222 221 
224 224 225 226 223 227 226 225 228 
228 229 230 227 231 230 232 233 229 
234 234 232 235 231 236 235 119 118 
2 120 123 237 237 124 238 184 239 
238 183 239 2 240 240 241 241 121 
242 236 233 242 243 242 178 243 238 
2 1 128 177 243 244 125 237 245 
246 241 247 246 240 247 239 247 245 
244 
CELL_DATA 257
SCALARS STLSolidLabeling float
LOOKUP_TABLE default
0 0 0 0 0 0 0 0 0 
0 0 0 0 0 0 0 0 0 
0 0 0 0 0 0 0 0 0 
0 0 0 0 0 0 0 0 0 
0 0 0 0 0 0 0 0 0 
0 0 0 0 0 0 0 0 0 
0 0 0 0 0 0 0 0 0 
0 0 0 0 0 0 0 0 0 
0 0 0 0 0 0 0 0 0 
0 0 0 0 0 0 0 0 0 
0 0 0 0 0 0 0 0 0 
0 0 0 0 0 0 0 0 0 
0 0 0 0 0 0 0 0 0 
0 0 0 0 0 0 0 0 0 
0 0 0 0 0 0 0 0 0 
0 0 0 0 0 0 0 0 0 
0 0 0 0 0 0 0 0 0 
0 0 0 0 0 0 0 0 0 
0 0 0 0 0 0 0 0 0 
0 0 0 0 0 0 0 0 0 
0 0 0 0 0 0 0 0 0 
0 0 0 0 0 0 0 0 0 
0 0 0 0 0 0 0 0 0 
0 0 0 0 0 0 0 0 0 
0 0 0 0 0 0 0 0 0 
0 0 0 0 0 0 0 0 0 
0 0 0 0 0 0 0 0 0 
0 0 0 0 0 0 0 0 0 
0 0 0 0 0 
